# ~/.bashrc: executed by bash(1) for non-login shells.
# see /usr/share/doc/bash/examples/startup-files (in the package bash-doc)
# for examples

# If not running interactively, don't do anything
case $- in
    *i*) ;;
      *) return;;
esac
HISTCONTROL=ignoreboth
shopt -s histappend
HISTSIZE=1000
HISTFILESIZE=2000

# check the window size after each command and, if necessary,
# update the values of LINES and COLUMNS.
shopt -s checkwinsize

# set variable identifying the chroot you work in (used in the prompt below)
if [ -z "${debian_chroot:-}" ] && [ -r /etc/debian_chroot ]; then
    debian_chroot=$(cat /etc/debian_chroot)
fi

# set a fancy prompt (non-color, unless we know we "want" color)
case "$TERM" in
    xterm-color|*-256color) color_prompt=yes;;
esac

if [ "$color_prompt" = yes ]; then
    PS1='${debian_chroot:+($debian_chroot)}\[\033[01;32m\]\u@\h\[\033[00m\]:\[\033[01;34m\]\w\[\033[00m\]\$ '
else
    PS1='${debian_chroot:+($debian_chroot)}\u@\h:\w\$ '
fi
unset color_prompt force_color_prompt


# enable color support of ls and also add handy aliases
if [ -x /usr/bin/dircolors ]; then
    test -r ~/.dircolors && eval "$(dircolors -b ~/.dircolors)" || eval "$(dircolors -b)"
    alias ls='ls --color=auto'
    alias grep='grep --color=auto'
fi

# colored GCC warnings and errors
export GCC_COLORS='error=01;31:warning=01;35:note=01;36:caret=01;32:locus=01:quote=01'

# some more ls aliases
alias ll='lsd -la'
alias l='lsd -l'
alias la='lsd -la'
alias ls=lsd

# enable programmable completion features (you don't need to enable
# this, if it's already enabled in /etc/bash.bashrc and /etc/profile
# sources /etc/bash.bashrc).
if ! shopt -oq posix; then
  if [ -f /usr/share/bash-completion/bash_completion ]; then
    . /usr/share/bash-completion/bash_completion
  elif [ -f /etc/bash_completion ]; then
    . /etc/bash_completion
  fi
fi

# taras config
export EDITOR=vim
export GPG_TTY=$(tty)
alias gs="git status"
export GAUSS_SCRDIR=/tmp
export GAUSS_EXEDIR=/opt/disgrace_program/latest/g16
alias  ca="source $HOME/miniconda3/bin/activate; conda activate vpt"
export PATH=/opt/OpenMolcas:/opt/yt-dlp/latest/bin:/opt/ctpv/latest/bin:$PATH
alias systemctl="sudo systemctl"
lfcd() {
  cd "$(command lf -print-last-dir "$@")"
}
alias lf='lfcd'
alias nala="sudo nala"
# path 
export PATH=$HOME/.local/bin:$PATH
export PATH=/opt/ueberzugpp/latest/bin:$PATH
export PATH=/opt/ctpv/latest/bin:$PATH
export PATH=/opt/OpenMolcas/latest:$PATH
export PATH=/opt/yt-dlp/latest/bin:$PATH
export PATH=/opt/crystal/latest/bin:$PATH
export PATH=/opt/openmpi/latest/bin:$PATH
#ld
export LD_LIBRARY_PATH=/opt/openmpi/latest/lib:$LD_LIBRARY_PATH
alias DU="du -hs .;du -hs *"
export CRYSTAL_ROOT=/opt/crystal/latest
export MPIROOT=/opt/openmpi/latest
export CRYSCOR_ROOT=/work/cryscor/bin/Linux-ifx-taras/std
#alias cp='/usr/local/bin/cpg -g'
#alias mv='/usr/local/bin/mvg -g'
# nice colored prompt
GREEN="\[\e[38;5;108m\]"     
AQUA="\[\e[38;5;108m\]"     
FG="\[\e[38;5;223m\]"
YELLOW="\[\e[38;5;180m\]"   
RESET="\[\e[0m\]"
BOLD="\[\e[1m\]"
ITALIC="\[\e[3m\]"
export PS1="${GREEN}${ITALIC}\u${RESET}${GREY}@${FG}${ITALIC}\h${RESET} \
${YELLOW}${BOLD}\w${RESET} ${AQUA}➤ ${RESET}"

alias tmux="tmux new -A -s main"
